<?xml version="1.0"?>

<!-- generated on Tue Nov 20 15:48:17 2018 by SUMO sumo Version 0.12.3
<?xml version="1.0" encoding="iso-8859-1"?>

<configuration xmlns:xsi="http://www.w3.org/2001/XMLSchema-instance" xsi:noNamespaceSchemaLocation="http://sumo.sf.net/xsd/sumoConfiguration.xsd">

    <input>
        <net-file value="/home/vanet/vanetstudy/test.net.xml"/>
        <route-files value="/home/vanet/vanetstudy/test.rou.xml"/>
    </input>

    <output>
        <netstate-dump value="/home/vanet/vanetstudy/test.sumo.tr"/>
        <emissions-output value="/home/vanet/vanetstudy/output-emissions.xml"/>
        <tripinfo-output value="/home/vanet/vanetstudy/output-tripinfos.xml"/>
        <vehroute-output value="/home/vanet/vanetstudy/output-vehroutes.xml"/>
    </output>

    <time>
        <begin value="0"/>
        <end value="1000"/>
    </time>

    <processing>
        <route-steps value="-1"/>
        <time-to-teleport value="-1"/>
    </processing>

    <report>
        <verbose value="true"/>
        <print-options value="false"/>
    </report>

    <random_number>
        <srand value="23423"/>
    </random_number>

    <gui_only>
        <gui-settings-file value=""/>
    </gui_only>

</configuration>
-->

<routes>
    <vehicle id="f1_2" depart="80.00" arrival="940.00">
        <route edges="R12 D25 U25 D25 U35 D35 L45 R45 U25 L12 R12 D25 L45 U14 L01 D04 R45 U25 L12 R12 D25 U35 L23 D25 L45 U14 R12 D25 L45 R45 U25 R23 L23"/>
    </vehicle>

</routes>
