<?xml version="1.0"?>

<!-- generated on Tue Nov 20 14:45:15 2018 by SUMO sumo Version 0.12.3
<?xml version="1.0" encoding="iso-8859-1"?>

<configuration xmlns:xsi="http://www.w3.org/2001/XMLSchema-instance" xsi:noNamespaceSchemaLocation="http://sumo.sf.net/xsd/sumoConfiguration.xsd">

    <input>
        <net-file value="/home/vanet/vanetstudy/test.net.xml"/>
        <route-files value="/home/vanet/vanetstudy/test.rou.xml"/>
    </input>

    <output>
        <netstate-dump value="/home/vanet/vanetstudy/test.sumo.tr"/>
        <emissions-output value="/home/vanet/vanetstudy/output-emissions.xml"/>
        <tripinfo-output value="/home/vanet/vanetstudy/output-tripinfos.xml"/>
        <vehroute-output value="/home/vanet/vanetstudy/output-vehroutes.xml"/>
    </output>

    <time>
        <begin value="0"/>
        <end value="1000"/>
    </time>

    <processing>
        <route-steps value="-1"/>
        <time-to-teleport value="-1"/>
    </processing>

    <report>
        <verbose value="true"/>
        <print-options value="false"/>
    </report>

    <random_number>
        <srand value="23423"/>
    </random_number>

    <gui_only>
        <gui-settings-file value=""/>
    </gui_only>

</configuration>
-->

<sumo-netstate>
    <timestep time="0.00">
        <edge id="D04">
            <lane id="D04_0">
                <vehicle id="f0_0" pos="7.60" speed="0.00"/>
            </lane>
            <lane id="D04_1"/>
        </edge>
        <edge id="R12">
            <lane id="R12_0">
                <vehicle id="f1_0" pos="7.60" speed="0.00"/>
            </lane>
            <lane id="R12_1"/>
        </edge>
    </timestep>
    <timestep time="1.00">
        <edge id="D04">
            <lane id="D04_0">
                <vehicle id="f0_0" pos="9.31" speed="1.71"/>
            </lane>
            <lane id="D04_1"/>
        </edge>
        <edge id="R12">
            <lane id="R12_0">
                <vehicle id="f1_0" pos="9.08" speed="1.48"/>
            </lane>
            <lane id="R12_1"/>
        </edge>
    </timestep>
    <timestep time="2.00">
        <edge id="D04">
            <lane id="D04_0">
                <vehicle id="f0_0" pos="12.95" speed="3.64"/>
            </lane>
            <lane id="D04_1"/>
        </edge>
        <edge id="R12">
            <lane id="R12_0">
                <vehicle id="f1_0" pos="13.06" speed="3.97"/>
            </lane>
            <lane id="R12_1"/>
        </edge>
    </timestep>
    <timestep time="3.00">
        <edge id="D04">
            <lane id="D04_0">
                <vehicle id="f0_0" pos="19.01" speed="6.06"/>
            </lane>
            <lane id="D04_1"/>
        </edge>
        <edge id="R12">
            <lane id="R12_0">
                <vehicle id="f1_0" pos="18.79" speed="5.73"/>
            </lane>
            <lane id="R12_1"/>
        </edge>
    </timestep>
    <timestep time="4.00">
        <edge id="D04">
            <lane id="D04_0">
                <vehicle id="f0_0" pos="27.16" speed="8.15"/>
            </lane>
            <lane id="D04_1"/>
        </edge>
        <edge id="R12">
            <lane id="R12_0">
                <vehicle id="f1_0" pos="26.05" speed="7.26"/>
            </lane>
            <lane id="R12_1"/>
        </edge>
    </timestep>
    <timestep time="5.00">
        <edge id="D04">
            <lane id="D04_0">
                <vehicle id="f0_0" pos="36.78" speed="9.62"/>
            </lane>
            <lane id="D04_1"/>
        </edge>
        <edge id="R12">
            <lane id="R12_0">
                <vehicle id="f1_0" pos="35.03" speed="8.98"/>
            </lane>
            <lane id="R12_1"/>
        </edge>
    </timestep>
    <timestep time="6.00">
        <edge id="D04">
            <lane id="D04_0">
                <vehicle id="f0_0" pos="47.92" speed="11.14"/>
            </lane>
            <lane id="D04_1"/>
        </edge>
        <edge id="R12">
            <lane id="R12_0">
                <vehicle id="f1_0" pos="46.27" speed="11.24"/>
            </lane>
            <lane id="R12_1"/>
        </edge>
    </timestep>
    <timestep time="7.00">
        <edge id="D04">
            <lane id="D04_0">
                <vehicle id="f0_0" pos="60.77" speed="12.85"/>
            </lane>
            <lane id="D04_1"/>
        </edge>
        <edge id="R12">
            <lane id="R12_0">
                <vehicle id="f1_0" pos="59.21" speed="12.93"/>
            </lane>
            <lane id="R12_1"/>
        </edge>
    </timestep>
    <timestep time="8.00">
        <edge id="D04">
            <lane id="D04_0"/>
            <lane id="D04_1">
                <vehicle id="f0_0" pos="75.47" speed="14.70"/>
            </lane>
        </edge>
        <edge id="R12">
            <lane id="R12_0">
                <vehicle id="f1_0" pos="73.68" speed="14.48"/>
            </lane>
            <lane id="R12_1"/>
        </edge>
    </timestep>
    <timestep time="9.00">
        <edge id="D04">
            <lane id="D04_0"/>
            <lane id="D04_1">
                <vehicle id="f0_0" pos="92.17" speed="16.70"/>
            </lane>
        </edge>
        <edge id="R12">
            <lane id="R12_0">
                <vehicle id="f1_0" pos="89.35" speed="15.67"/>
            </lane>
            <lane id="R12_1"/>
        </edge>
    </timestep>
    <timestep time="10.00">
        <edge id="D04">
            <lane id="D04_0"/>
            <lane id="D04_1">
                <vehicle id="f0_0" pos="110.54" speed="18.37"/>
            </lane>
        </edge>
        <edge id="R12">
            <lane id="R12_0">
                <vehicle id="f1_0" pos="106.37" speed="17.02"/>
            </lane>
            <lane id="R12_1"/>
        </edge>
    </timestep>
    <timestep time="11.00">
        <edge id="D04">
            <lane id="D04_0"/>
            <lane id="D04_1">
                <vehicle id="f0_0" pos="130.78" speed="20.24"/>
            </lane>
        </edge>
        <edge id="R12">
            <lane id="R12_0">
                <vehicle id="f1_0" pos="124.88" speed="18.50"/>
            </lane>
            <lane id="R12_1"/>
        </edge>
    </timestep>
    <timestep time="12.00">
        <edge id="D04">
            <lane id="D04_0"/>
            <lane id="D04_1">
                <vehicle id="f0_0" pos="152.60" speed="21.82"/>
            </lane>
        </edge>
        <edge id="R12">
            <lane id="R12_0">
                <vehicle id="f1_0" pos="144.71" speed="19.83"/>
            </lane>
            <lane id="R12_1"/>
        </edge>
    </timestep>
    <timestep time="13.00">
        <edge id="D04">
            <lane id="D04_0"/>
            <lane id="D04_1">
                <vehicle id="f0_0" pos="175.40" speed="22.80"/>
            </lane>
        </edge>
        <edge id="R12">
            <lane id="R12_0">
                <vehicle id="f1_0" pos="165.67" speed="20.96"/>
            </lane>
            <lane id="R12_1"/>
        </edge>
    </timestep>
    <timestep time="14.00">
        <edge id=":n2_7">
            <lane id=":n2_7_0">
                <vehicle id="f1_0" pos="4.20" speed="22.43"/>
            </lane>
        </edge>
        <edge id="D04">
            <lane id="D04_0"/>
            <lane id="D04_1">
                <vehicle id="f0_0" pos="196.35" speed="20.96"/>
            </lane>
        </edge>
    </timestep>
    <timestep time="15.00">
        <edge id="D04">
            <lane id="D04_0"/>
            <lane id="D04_1">
                <vehicle id="f0_0" pos="213.70" speed="17.35"/>
            </lane>
        </edge>
        <edge id="D25">
            <lane id="D25_0">
                <vehicle id="f1_0" pos="23.20" speed="24.00"/>
            </lane>
            <lane id="D25_1"/>
        </edge>
    </timestep>
    <timestep time="16.00">
        <edge id="D04">
            <lane id="D04_0"/>
            <lane id="D04_1">
                <vehicle id="f0_0" pos="227.45" speed="13.75"/>
            </lane>
        </edge>
        <edge id="D25">
            <lane id="D25_0">
                <vehicle id="f1_0" pos="48.88" speed="25.68"/>
            </lane>
            <lane id="D25_1"/>
        </edge>
    </timestep>
    <timestep time="17.00">
        <edge id="D04">
            <lane id="D04_0"/>
            <lane id="D04_1">
                <vehicle id="f0_0" pos="237.63" speed="10.18"/>
            </lane>
        </edge>
        <edge id="D25">
            <lane id="D25_0">
                <vehicle id="f1_0" pos="75.59" speed="26.72"/>
            </lane>
            <lane id="D25_1"/>
        </edge>
    </timestep>
    <timestep time="18.00">
        <edge id="D04">
            <lane id="D04_0"/>
            <lane id="D04_1">
                <vehicle id="f0_0" pos="244.45" speed="6.83"/>
            </lane>
        </edge>
        <edge id="D25">
            <lane id="D25_0">
                <vehicle id="f1_0" pos="100.50" speed="24.91"/>
            </lane>
            <lane id="D25_1"/>
        </edge>
    </timestep>
    <timestep time="19.00">
        <edge id="D04">
            <lane id="D04_0"/>
            <lane id="D04_1">
                <vehicle id="f0_0" pos="247.77" speed="3.32"/>
            </lane>
        </edge>
        <edge id="D25">
            <lane id="D25_0">
                <vehicle id="f1_0" pos="121.61" speed="21.11"/>
            </lane>
            <lane id="D25_1"/>
        </edge>
    </timestep>
    <timestep time="20.00">
        <edge id=":n4_9">
            <lane id=":n4_9_0">
                <vehicle id="f0_0" pos="3.70" speed="5.64"/>
            </lane>
        </edge>
        <edge id="D25">
            <lane id="D25_0">
                <vehicle id="f1_0" pos="139.29" speed="17.68"/>
            </lane>
            <lane id="D25_1"/>
        </edge>
    </timestep>
    <timestep time="21.00">
        <edge id=":n4_9">
            <lane id=":n4_9_0">
                <vehicle id="f0_0" pos="10.62" speed="6.92"/>
            </lane>
        </edge>
        <edge id="D25">
            <lane id="D25_0">
                <vehicle id="f1_0" pos="152.75" speed="13.47"/>
            </lane>
            <lane id="D25_1"/>
        </edge>
    </timestep>
    <timestep time="22.00">
        <edge id=":n4_14">
            <lane id=":n4_14_0">
                <vehicle id="f0_0" pos="5.87" speed="9.02"/>
            </lane>
        </edge>
        <edge id="D25">
            <lane id="D25_0">
                <vehicle id="f1_0" pos="162.70" speed="9.95"/>
            </lane>
            <lane id="D25_1"/>
        </edge>
    </timestep>
    <timestep time="23.00">
        <edge id="D25">
            <lane id="D25_0">
                <vehicle id="f1_0" pos="169.30" speed="6.60"/>
            </lane>
            <lane id="D25_1"/>
        </edge>
        <edge id="U14">
            <lane id="U14_0"/>
            <lane id="U14_1">
                <vehicle id="f0_0" pos="3.91" speed="10.66"/>
            </lane>
        </edge>
    </timestep>
    <timestep time="24.00">
        <edge id="D25">
            <lane id="D25_0">
                <vehicle id="f1_0" pos="172.07" speed="2.76"/>
            </lane>
            <lane id="D25_1"/>
        </edge>
        <edge id="U14">
            <lane id="U14_0"/>
            <lane id="U14_1">
                <vehicle id="f0_0" pos="16.52" speed="12.61"/>
            </lane>
        </edge>
    </timestep>
    <timestep time="25.00">
        <edge id="D25">
            <lane id="D25_0">
                <vehicle id="f1_0" pos="173.46" speed="1.39"/>
            </lane>
            <lane id="D25_1"/>
        </edge>
        <edge id="U14">
            <lane id="U14_0"/>
            <lane id="U14_1">
                <vehicle id="f0_0" pos="31.17" speed="14.65"/>
            </lane>
        </edge>
    </timestep>
    <timestep time="26.00">
        <edge id="D25">
            <lane id="D25_0">
                <vehicle id="f1_0" pos="174.20" speed="0.74"/>
            </lane>
            <lane id="D25_1"/>
        </edge>
        <edge id="U14">
            <lane id="U14_0"/>
            <lane id="U14_1">
                <vehicle id="f0_0" pos="47.16" speed="15.99"/>
            </lane>
        </edge>
    </timestep>
    <timestep time="27.00">
        <edge id="D25">
            <lane id="D25_0">
                <vehicle id="f1_0" pos="174.42" speed="0.22"/>
            </lane>
            <lane id="D25_1"/>
        </edge>
        <edge id="U14">
            <lane id="U14_0"/>
            <lane id="U14_1">
                <vehicle id="f0_0" pos="64.49" speed="17.33"/>
            </lane>
        </edge>
    </timestep>
    <timestep time="28.00">
        <edge id="D25">
            <lane id="D25_0">
                <vehicle id="f1_0" pos="174.60" speed="0.18"/>
            </lane>
            <lane id="D25_1"/>
        </edge>
        <edge id="U14">
            <lane id="U14_0"/>
            <lane id="U14_1">
                <vehicle id="f0_0" pos="82.88" speed="18.38"/>
            </lane>
        </edge>
    </timestep>
    <timestep time="29.00">
        <edge id="D25">
            <lane id="D25_0">
                <vehicle id="f1_0" pos="174.63" speed="0.03"/>
            </lane>
            <lane id="D25_1"/>
        </edge>
        <edge id="U14">
            <lane id="U14_0"/>
            <lane id="U14_1">
                <vehicle id="f0_0" pos="102.72" speed="19.85"/>
            </lane>
        </edge>
    </timestep>
    <timestep time="30.00">
        <edge id="D25">
            <lane id="D25_0">
                <vehicle id="f1_0" pos="174.63" speed="0.01"/>
            </lane>
            <lane id="D25_1"/>
        </edge>
        <edge id="U14">
            <lane id="U14_0"/>
            <lane id="U14_1">
                <vehicle id="f0_0" pos="123.91" speed="21.18"/>
            </lane>
        </edge>
    </timestep>
    <timestep time="31.00">
        <edge id="D25">
            <lane id="D25_0">
                <vehicle id="f1_0" pos="174.63" speed="0.00"/>
            </lane>
            <lane id="D25_1"/>
        </edge>
        <edge id="U14">
            <lane id="U14_0"/>
            <lane id="U14_1">
                <vehicle id="f0_0" pos="141.06" speed="17.16"/>
            </lane>
        </edge>
    </timestep>
    <timestep time="32.00">
        <edge id="D25">
            <lane id="D25_0">
                <vehicle id="f1_0" pos="174.63" speed="0.00"/>
            </lane>
            <lane id="D25_1"/>
        </edge>
        <edge id="U14">
            <lane id="U14_0"/>
            <lane id="U14_1">
                <vehicle id="f0_0" pos="154.36" speed="13.30"/>
            </lane>
        </edge>
    </timestep>
    <timestep time="33.00">
        <edge id="D25">
            <lane id="D25_0">
                <vehicle id="f1_0" pos="174.63" speed="0.00"/>
            </lane>
            <lane id="D25_1"/>
        </edge>
        <edge id="U14">
            <lane id="U14_0"/>
            <lane id="U14_1">
                <vehicle id="f0_0" pos="163.79" speed="9.43"/>
            </lane>
        </edge>
    </timestep>
    <timestep time="34.00">
        <edge id="D25">
            <lane id="D25_0">
                <vehicle id="f1_0" pos="174.63" speed="0.00"/>
            </lane>
            <lane id="D25_1"/>
        </edge>
        <edge id="U14">
            <lane id="U14_0"/>
            <lane id="U14_1">
                <vehicle id="f0_0" pos="169.05" speed="5.26"/>
            </lane>
        </edge>
    </timestep>
    <timestep time="35.00">
        <edge id="D25">
            <lane id="D25_0">
                <vehicle id="f1_0" pos="174.63" speed="0.00"/>
            </lane>
            <lane id="D25_1"/>
        </edge>
        <edge id="U14">
            <lane id="U14_0"/>
            <lane id="U14_1">
                <vehicle id="f0_0" pos="172.73" speed="3.68"/>
            </lane>
        </edge>
    </timestep>
    <timestep time="36.00">
        <edge id="D25">
            <lane id="D25_0">
                <vehicle id="f1_0" pos="174.63" speed="0.00"/>
            </lane>
            <lane id="D25_1"/>
        </edge>
        <edge id="U14">
            <lane id="U14_0"/>
            <lane id="U14_1">
                <vehicle id="f0_0" pos="174.09" speed="1.36"/>
            </lane>
        </edge>
    </timestep>
    <timestep time="37.00">
        <edge id="D25">
            <lane id="D25_0">
                <vehicle id="f1_0" pos="174.63" speed="0.00"/>
            </lane>
            <lane id="D25_1"/>
        </edge>
        <edge id="U14">
            <lane id="U14_0"/>
            <lane id="U14_1">
                <vehicle id="f0_0" pos="174.59" speed="0.49"/>
            </lane>
        </edge>
    </timestep>
    <timestep time="38.00">
        <edge id="D25">
            <lane id="D25_0">
                <vehicle id="f1_0" pos="174.63" speed="0.00"/>
            </lane>
            <lane id="D25_1"/>
        </edge>
        <edge id="U14">
            <lane id="U14_0"/>
            <lane id="U14_1">
                <vehicle id="f0_0" pos="174.63" speed="0.05"/>
            </lane>
        </edge>
    </timestep>
    <timestep time="39.00">
        <edge id="D25">
            <lane id="D25_0">
                <vehicle id="f1_0" pos="174.63" speed="0.00"/>
            </lane>
            <lane id="D25_1"/>
        </edge>
        <edge id="U14">
            <lane id="U14_0"/>
            <lane id="U14_1">
                <vehicle id="f0_0" pos="174.63" speed="0.00"/>
            </lane>
        </edge>
    </timestep>
    <timestep time="40.00">
        <edge id="D04">
            <lane id="D04_0">
                <vehicle id="f0_1" pos="7.60" speed="0.00"/>
            </lane>
            <lane id="D04_1"/>
        </edge>
        <edge id="D25">
            <lane id="D25_0">
                <vehicle id="f1_0" pos="174.63" speed="0.00"/>
            </lane>
            <lane id="D25_1"/>
        </edge>
        <edge id="R12">
            <lane id="R12_0">
                <vehicle id="f1_1" pos="7.60" speed="0.00"/>
            </lane>
            <lane id="R12_1"/>
        </edge>
        <edge id="U14">
            <lane id="U14_0"/>
            <lane id="U14_1">
                <vehicle id="f0_0" pos="174.63" speed="0.00"/>
            </lane>
        </edge>
    </timestep>
    <timestep time="41.00">
        <edge id="D04">
            <lane id="D04_0">
                <vehicle id="f0_1" pos="9.93" speed="2.33"/>
            </lane>
            <lane id="D04_1"/>
        </edge>
        <edge id="D25">
            <lane id="D25_0">
                <vehicle id="f1_0" pos="174.63" speed="0.00"/>
            </lane>
            <lane id="D25_1"/>
        </edge>
        <edge id="R12">
            <lane id="R12_0">
                <vehicle id="f1_1" pos="9.84" speed="2.24"/>
            </lane>
            <lane id="R12_1"/>
        </edge>
        <edge id="U14">
            <lane id="U14_0"/>
            <lane id="U14_1">
                <vehicle id="f0_0" pos="174.63" speed="0.00"/>
            </lane>
        </edge>
    </timestep>
    <timestep time="42.00">
        <edge id="D04">
            <lane id="D04_0">
                <vehicle id="f0_1" pos="14.31" speed="4.38"/>
            </lane>
            <lane id="D04_1"/>
        </edge>
        <edge id="D25">
            <lane id="D25_0">
                <vehicle id="f1_0" pos="174.63" speed="0.00"/>
            </lane>
            <lane id="D25_1"/>
        </edge>
        <edge id="R12">
            <lane id="R12_0">
                <vehicle id="f1_1" pos="13.85" speed="4.01"/>
            </lane>
            <lane id="R12_1"/>
        </edge>
        <edge id="U14">
            <lane id="U14_0"/>
            <lane id="U14_1">
                <vehicle id="f0_0" pos="174.63" speed="0.00"/>
            </lane>
        </edge>
    </timestep>
    <timestep time="43.00">
        <edge id="D04">
            <lane id="D04_0">
                <vehicle id="f0_1" pos="20.63" speed="6.32"/>
            </lane>
            <lane id="D04_1"/>
        </edge>
        <edge id="D25">
            <lane id="D25_0">
                <vehicle id="f1_0" pos="174.63" speed="0.00"/>
            </lane>
            <lane id="D25_1"/>
        </edge>
        <edge id="R12">
            <lane id="R12_0">
                <vehicle id="f1_1" pos="19.61" speed="5.77"/>
            </lane>
            <lane id="R12_1"/>
        </edge>
        <edge id="U14">
            <lane id="U14_0"/>
            <lane id="U14_1">
                <vehicle id="f0_0" pos="174.63" speed="0.00"/>
            </lane>
        </edge>
    </timestep>
    <timestep time="44.00">
        <edge id="D04">
            <lane id="D04_0">
                <vehicle id="f0_1" pos="28.98" speed="8.34"/>
            </lane>
            <lane id="D04_1"/>
        </edge>
        <edge id="D25">
            <lane id="D25_0">
                <vehicle id="f1_0" pos="174.63" speed="0.00"/>
            </lane>
            <lane id="D25_1"/>
        </edge>
        <edge id="R12">
            <lane id="R12_0">
                <vehicle id="f1_1" pos="27.74" speed="8.13"/>
            </lane>
            <lane id="R12_1"/>
        </edge>
        <edge id="U14">
            <lane id="U14_0"/>
            <lane id="U14_1">
                <vehicle id="f0_0" pos="174.63" speed="0.00"/>
            </lane>
        </edge>
    </timestep>
    <timestep time="45.00">
        <edge id="D04">
            <lane id="D04_0">
                <vehicle id="f0_1" pos="38.59" speed="9.61"/>
            </lane>
            <lane id="D04_1"/>
        </edge>
        <edge id="D25">
            <lane id="D25_0">
                <vehicle id="f1_0" pos="174.63" speed="0.00"/>
            </lane>
            <lane id="D25_1"/>
        </edge>
        <edge id="R12">
            <lane id="R12_0">
                <vehicle id="f1_1" pos="37.48" speed="9.73"/>
            </lane>
            <lane id="R12_1"/>
        </edge>
        <edge id="U14">
            <lane id="U14_0"/>
            <lane id="U14_1">
                <vehicle id="f0_0" pos="174.63" speed="0.00"/>
            </lane>
        </edge>
    </timestep>
    <timestep time="46.00">
        <edge id="D04">
            <lane id="D04_0">
                <vehicle id="f0_1" pos="49.96" speed="11.37"/>
            </lane>
            <lane id="D04_1"/>
        </edge>
        <edge id="D25">
            <lane id="D25_0">
                <vehicle id="f1_0" pos="174.63" speed="0.00"/>
            </lane>
            <lane id="D25_1"/>
        </edge>
        <edge id="R12">
            <lane id="R12_0">
                <vehicle id="f1_1" pos="48.68" speed="11.21"/>
            </lane>
            <lane id="R12_1"/>
        </edge>
        <edge id="U14">
            <lane id="U14_0"/>
            <lane id="U14_1">
                <vehicle id="f0_0" pos="174.63" speed="0.00"/>
            </lane>
        </edge>
    </timestep>
    <timestep time="47.00">
        <edge id="D04">
            <lane id="D04_0">
                <vehicle id="f0_1" pos="63.19" speed="13.23"/>
            </lane>
            <lane id="D04_1"/>
        </edge>
        <edge id="D25">
            <lane id="D25_0">
                <vehicle id="f1_0" pos="174.63" speed="0.00"/>
            </lane>
            <lane id="D25_1"/>
        </edge>
        <edge id="R12">
            <lane id="R12_0">
                <vehicle id="f1_1" pos="61.05" speed="12.37"/>
            </lane>
            <lane id="R12_1"/>
        </edge>
        <edge id="U14">
            <lane id="U14_0"/>
            <lane id="U14_1">
                <vehicle id="f0_0" pos="174.63" speed="0.00"/>
            </lane>
        </edge>
    </timestep>
    <timestep time="48.00">
        <edge id="D04">
            <lane id="D04_0">
                <vehicle id="f0_1" pos="78.43" speed="15.24"/>
            </lane>
            <lane id="D04_1"/>
        </edge>
        <edge id="D25">
            <lane id="D25_0">
                <vehicle id="f1_0" pos="174.63" speed="0.00"/>
            </lane>
            <lane id="D25_1"/>
        </edge>
        <edge id="R12">
            <lane id="R12_0">
                <vehicle id="f1_1" pos="74.84" speed="13.79"/>
            </lane>
            <lane id="R12_1"/>
        </edge>
        <edge id="U14">
            <lane id="U14_0"/>
            <lane id="U14_1">
                <vehicle id="f0_0" pos="174.63" speed="0.00"/>
            </lane>
        </edge>
    </timestep>
    <timestep time="49.00">
        <edge id="D04">
            <lane id="D04_0">
                <vehicle id="f0_1" pos="95.43" speed="17.00"/>
            </lane>
            <lane id="D04_1"/>
        </edge>
        <edge id="D25">
            <lane id="D25_0">
                <vehicle id="f1_0" pos="174.63" speed="0.00"/>
            </lane>
            <lane id="D25_1"/>
        </edge>
        <edge id="R12">
            <lane id="R12_0">
                <vehicle id="f1_1" pos="89.93" speed="15.09"/>
            </lane>
            <lane id="R12_1"/>
        </edge>
        <edge id="U14">
            <lane id="U14_0"/>
            <lane id="U14_1">
                <vehicle id="f0_0" pos="174.63" speed="0.00"/>
            </lane>
        </edge>
    </timestep>
    <timestep time="50.00">
        <edge id="D04">
            <lane id="D04_0">
                <vehicle id="f0_1" pos="114.26" speed="18.83"/>
            </lane>
            <lane id="D04_1"/>
        </edge>
        <edge id="D25">
            <lane id="D25_0">
                <vehicle id="f1_0" pos="174.63" speed="0.00"/>
            </lane>
            <lane id="D25_1"/>
        </edge>
        <edge id="R12">
            <lane id="R12_0">
                <vehicle id="f1_1" pos="106.36" speed="16.43"/>
            </lane>
            <lane id="R12_1"/>
        </edge>
        <edge id="U14">
            <lane id="U14_0"/>
            <lane id="U14_1">
                <vehicle id="f0_0" pos="174.63" speed="0.00"/>
            </lane>
        </edge>
    </timestep>
    <timestep time="51.00">
        <edge id="D04">
            <lane id="D04_0"/>
            <lane id="D04_1">
                <vehicle id="f0_1" pos="134.95" speed="20.69"/>
            </lane>
        </edge>
        <edge id="D25">
            <lane id="D25_0">
                <vehicle id="f1_0" pos="174.63" speed="0.00"/>
            </lane>
            <lane id="D25_1"/>
        </edge>
        <edge id="R12">
            <lane id="R12_0">
                <vehicle id="f1_1" pos="124.32" speed="17.96"/>
            </lane>
            <lane id="R12_1"/>
        </edge>
        <edge id="U14">
            <lane id="U14_0"/>
            <lane id="U14_1">
                <vehicle id="f0_0" pos="174.63" speed="0.00"/>
            </lane>
        </edge>
    </timestep>
    <timestep time="52.00">
        <edge id="D04">
            <lane id="D04_0"/>
            <lane id="D04_1">
                <vehicle id="f0_1" pos="156.61" speed="21.66"/>
            </lane>
        </edge>
        <edge id="D25">
            <lane id="D25_0">
                <vehicle id="f1_0" pos="174.63" speed="0.00"/>
            </lane>
            <lane id="D25_1"/>
        </edge>
        <edge id="R12">
            <lane id="R12_0">
                <vehicle id="f1_1" pos="142.61" speed="18.29"/>
            </lane>
            <lane id="R12_1"/>
        </edge>
        <edge id="U14">
            <lane id="U14_0"/>
            <lane id="U14_1">
                <vehicle id="f0_0" pos="174.63" speed="0.00"/>
            </lane>
        </edge>
    </timestep>
    <timestep time="53.00">
        <edge id="D04">
            <lane id="D04_0"/>
            <lane id="D04_1">
                <vehicle id="f0_1" pos="179.77" speed="23.16"/>
            </lane>
        </edge>
        <edge id="D25">
            <lane id="D25_0">
                <vehicle id="f1_0" pos="174.63" speed="0.00"/>
            </lane>
            <lane id="D25_1"/>
        </edge>
        <edge id="R12">
            <lane id="R12_0">
                <vehicle id="f1_1" pos="157.23" speed="14.62"/>
            </lane>
            <lane id="R12_1"/>
        </edge>
        <edge id="U14">
            <lane id="U14_0"/>
            <lane id="U14_1">
                <vehicle id="f0_0" pos="174.63" speed="0.00"/>
            </lane>
        </edge>
    </timestep>
    <timestep time="54.00">
        <edge id="D04">
            <lane id="D04_0"/>
            <lane id="D04_1">
                <vehicle id="f0_1" pos="200.51" speed="20.74"/>
            </lane>
        </edge>
        <edge id="D25">
            <lane id="D25_0">
                <vehicle id="f1_0" pos="174.63" speed="0.00"/>
            </lane>
            <lane id="D25_1"/>
        </edge>
        <edge id="R12">
            <lane id="R12_0">
                <vehicle id="f1_1" pos="168.45" speed="11.22"/>
            </lane>
            <lane id="R12_1"/>
        </edge>
        <edge id="U14">
            <lane id="U14_0"/>
            <lane id="U14_1">
                <vehicle id="f0_0" pos="174.63" speed="0.00"/>
            </lane>
        </edge>
    </timestep>
    <timestep time="55.00">
        <edge id="D04">
            <lane id="D04_0"/>
            <lane id="D04_1">
                <vehicle id="f0_1" pos="216.97" speed="16.46"/>
            </lane>
        </edge>
        <edge id="D25">
            <lane id="D25_0">
                <vehicle id="f1_0" pos="174.63" speed="0.00"/>
            </lane>
            <lane id="D25_1"/>
        </edge>
        <edge id="R12">
            <lane id="R12_0">
                <vehicle id="f1_1" pos="176.46" speed="8.00"/>
            </lane>
            <lane id="R12_1"/>
        </edge>
        <edge id="U14">
            <lane id="U14_0"/>
            <lane id="U14_1">